 Gaussian 09, Revision A.02,
 Gaussian 09:  EM64L-G09RevA.02 11-Jun-2009

 --------------------------------------------------------
 # nmr=(giao,spinspin) rb3lyp/6-31g(df,3p) output=pickett
 --------------------------------------------------------

 -------------------
 Title Card Required
 -------------------
 Symbolic Z-matrix:
 Charge =  0 Multiplicity = 1

                         Standard orientation:
 ---------------------------------------------------------------------
 Center     Atomic      Atomic             Coordinates (Angstroms)
 Number     Number       Type             X           Y           Z
 ---------------------------------------------------------------------
      1          6           0       -2.922317   -0.513298   -1.228945
      2          6           0       -2.142477   -1.779457   -0.894673
      3          6           0       -2.220338   -1.946946    0.437958
      4          6           0       -3.051600   -0.791631    0.982354
      5          6           0       -0.946915    0.631271    1.312863
      6          6           0       -0.812037    0.913476   -0.963394
      7          1           0       -3.177189   -0.308946   -2.265295
      8          1           0       -1.550088   -2.346133   -1.603170
      9          1           0       -1.705101   -2.679399    1.048025
     10          1           0       -3.426339   -0.844742    2.000938
     11          6           0       -4.051344   -0.568596   -0.174988
     12          8           0       -0.616492    0.508571    2.484818
     13          8           0       -0.363569    1.059623   -2.092600
     14          7           0       -2.223542    0.459989    0.787157
     15          7           0       -2.140262    0.639595   -0.638523
     16          7           0       -0.134056    1.036388    0.250620
     17          1           0       -4.712354   -1.422124   -0.321018
     18          1           0       -4.621164    0.359488   -0.091256
     19          6           0        1.276811    1.447306    0.456968
     20          1           0        1.318018    1.648309    1.530221
     21          6           0        1.590523    2.750992   -0.288546
     22          1           0        0.878723    3.531382   -0.002453
     23          1           0        2.595124    3.082359   -0.011416
     24          1           0        1.552760    2.623878   -1.371455
     25          6           0        2.254921    0.310153    0.172412
     26          6           0        2.530072   -0.126709   -1.133364
     27          6           0        2.914039   -0.309690    1.243557
     28          6           0        3.439649   -1.163538   -1.356692
     29          1           0        2.022614    0.335351   -1.973431
     30          6           0        3.827518   -1.345367    1.021367
     31          1           0        2.711693    0.018592    2.259711
     32          6           0        4.091978   -1.776216   -0.281135
     33          1           0        3.639642   -1.492423   -2.372621
     34          1           0        4.328524   -1.812511    1.864377
     35          1           0        4.799744   -2.580935   -0.458130
 ---------------------------------------------------------------------

 SCF Done:  E(RB3LYP) =  -895.351252038     A.U. after   14 cycles

  1  C    Isotropic =   125.1012   Anisotropy =    27.8304

  2  C    Isotropic =    63.1118   Anisotropy =   162.4378

  3  C    Isotropic =    63.1372   Anisotropy =   162.0968

  4  C    Isotropic =   124.9754   Anisotropy =    27.9213

  5  C    Isotropic =    39.0923   Anisotropy =    75.6566

  6  C    Isotropic =    38.0330   Anisotropy =    72.3288

  7  H    Isotropic =    26.8674   Anisotropy =     7.7580

  8  H    Isotropic =    25.2659   Anisotropy =     2.5929

  9  H    Isotropic =    25.3129   Anisotropy =     2.0320

 10  H    Isotropic =    26.9021   Anisotropy =     8.0711

 11  C    Isotropic =   141.2955   Anisotropy =    27.9171

 12  O    Isotropic =    31.2382   Anisotropy =   469.5626

 13  O    Isotropic =    27.1861   Anisotropy =   459.4755

 14  N    Isotropic =   116.3557   Anisotropy =    70.3703

 15  N    Isotropic =   116.6963   Anisotropy =    72.1188

 16  N    Isotropic =    87.1521   Anisotropy =    75.9303

 17  H    Isotropic =    30.1571   Anisotropy =    11.2121

 18  H    Isotropic =    29.6951   Anisotropy =    11.3522

 19  C    Isotropic =   133.7739   Anisotropy =    25.6286

 20  H    Isotropic =    26.8167   Anisotropy =     4.5628

 21  C    Isotropic =   172.6875   Anisotropy =    28.4698

 22  H    Isotropic =    30.3962   Anisotropy =     9.2856

 23  H    Isotropic =    30.5022   Anisotropy =     9.2154

 24  H    Isotropic =    28.6946   Anisotropy =     6.4477

 25  C    Isotropic =    53.0881   Anisotropy =   177.1650

 26  C    Isotropic =    66.5071   Anisotropy =   174.9753

 27  C    Isotropic =    65.9940   Anisotropy =   151.6462

 28  C    Isotropic =    67.3173   Anisotropy =   170.7998

 29  H    Isotropic =    23.1534   Anisotropy =     9.3334

 30  C    Isotropic =    68.1899   Anisotropy =   167.9602

 31  H    Isotropic =    24.1386   Anisotropy =     8.0277

 32  C    Isotropic =    67.9820   Anisotropy =   171.4715

 33  H    Isotropic =    24.1299   Anisotropy =     5.6022

 34  H    Isotropic =    24.2235   Anisotropy =     4.8943

 35  H    Isotropic =    24.2128   Anisotropy =     4.1584

 The electronic state is 1-A.
 Alpha  occ. eigenvalues --  -19.12941 -19.12769 -14.39930 -14.39917 -14.38920
 Alpha  occ. eigenvalues --  -10.32511 -10.32243 -10.25781 -10.25768 -10.24005
 Alpha  occ. eigenvalues --  -10.21434 -10.21098 -10.21017 -10.19571 -10.18797
 Alpha  occ. eigenvalues --  -10.18742 -10.18684 -10.18678 -10.18336 -10.17912
 Alpha  occ. eigenvalues --   -1.09964  -1.04024  -1.01775  -0.95061  -0.87080
 Alpha  occ. eigenvalues --   -0.84842  -0.84794  -0.78733  -0.74630  -0.73971
 Alpha  occ. eigenvalues --   -0.72464  -0.70744  -0.66625  -0.62641  -0.61472
 Alpha  occ. eigenvalues --   -0.60806  -0.59870  -0.57537  -0.56132  -0.54237
 Alpha  occ. eigenvalues --   -0.51766  -0.50650  -0.48681  -0.47837  -0.46644
 Alpha  occ. eigenvalues --   -0.45810  -0.44286  -0.43688  -0.43115  -0.42601
 Alpha  occ. eigenvalues --   -0.41441  -0.41273  -0.40777  -0.40404  -0.40059
 Alpha  occ. eigenvalues --   -0.39097  -0.38898  -0.38574  -0.36808  -0.36386
 Alpha  occ. eigenvalues --   -0.35732  -0.34091  -0.33423  -0.32878  -0.29041
 Alpha  occ. eigenvalues --   -0.27836  -0.27366  -0.27179  -0.24833  -0.24528
 Alpha  occ. eigenvalues --   -0.22896
 Alpha virt. eigenvalues --   -0.02674  -0.00632  -0.00143   0.01283   0.03705
 Alpha virt. eigenvalues --    0.08430   0.08943   0.10269   0.10804   0.10939
 Alpha virt. eigenvalues --    0.11748   0.11843   0.12605   0.13589   0.13704

 Mulliken atomic charges:
              1
     1  C    0.068090
     2  C   -0.014572
     3  C   -0.014402
     4  C    0.067574
     5  C    0.764792
     6  C    0.771333
     7  H    0.082989
     8  H    0.063259
     9  H    0.063451
    10  H    0.083645
    11  C   -0.056132
    12  O   -0.514305
    13  O   -0.516526
    14  N   -0.338964
    15  N   -0.333351
    16  N   -0.563805
    17  H    0.045916
    18  H    0.063480
    19  C    0.101366
    20  H    0.060943
    21  C    0.002484
    22  H    0.009167
    23  H    0.010768
    24  H    0.037297
    25  C    0.050902
    26  C   -0.004355
    27  C   -0.013206
    28  C   -0.028292
    29  H    0.023024
    30  C   -0.017616
    31  H    0.019224
    32  C   -0.002356
    33  H    0.012005
    34  H    0.010162
    35  H    0.006011
 Sum of Mulliken atomic charges =   0.00000

 Dipole moment (field-independent basis, Debye):
    X=             -1.8448    Y=             -2.3156    Z=             -0.4961  Tot=              3.0019
 Quadrupole moment (field-independent basis, Debye-Ang):
   XX=           -100.5901   YY=           -110.4531   ZZ=           -123.0310
   XY=              3.8025   XZ=              2.2329   YZ=              2.0769

 Normal termination of Gaussian 09 at Mon Jun 25 18:25:02 2018.
